12.52841531224654581
0
0
-12.52841531224654581
634629.61515957012306899
4252308.21194501221179962
