24.20542670744134028
0
0
-24.20542670744134028
538388.95699169219005853
5313452.71354189608246088
